# vtk DataFile Version 3.0
d-2__ created by libgimli-v1.5.0
ASCII
DATASET UNSTRUCTURED_GRID
POINTS 1486 double
14	799.7	0
14.056283270315	799.56388048557	0
14.1	799.6985	0
13.9	799.702	0
13.911947103962	799.50575503787	0
26.1	799.8575	0
26	799.85	0
26.101960608244	799.67014646672	0
38.1	799.258	0
38	799.26	0
38.081379576497	799.11281244226	0
23.557578412839	799.27450442381	0
23.675	799.5265	0
23.45	799.531	0
19.45	799.601	0
19	799.61	0
19.319494806284	799.1665463926	0
28.1	799.9975	0
28	800	0
28.083154629841	799.81550145782	0
10.1	799.778	0
10	799.78	0
10.064452686539	799.56800051978	0
12.046142091909	799.53206324862	0
12	799.74	0
11.906953310761	799.59505870114	0
10.321679878138	799.54769649474	0
37	799.28	0
36.55	799.289	0
36.68596529194	798.84646804433	0
39	799.24	0
39.206369563879	798.94271376169	0
39.45	799.231	0
13.770017318968	799.21034909723	0
13.662454078493	799.47691097726	0
27.941351379558	799.68658975717	0
28.21602382087	799.52941956584	0
39.911113819619	799.08774507916	0
40.038674310827	799.04436924525	0
40	799.22	0
8	799.81	0
7.9519899177836	799.70023971	0
8.0496369476936	799.69944899886	0
9.9158030442281	799.63245430669	0
21.546634047994	799.3010145722	0
21.675	799.564875	0
21.45	799.56825	0
21.91211143318	799.40669064677	0
22.066591183757	799.34022399543	0
22	799.56	0
20.056586569404	799.46519062292	0
20	799.59	0
19.91992712747	799.41523197434	0
12.1	799.738	0
19.9	799.592	0
20.182467831168	799.44130294054	0
20.325	799.585125	0
20.1	799.5885	0
9.9	799.7815	0
16	799.67	0
15.9	799.6715	0
15.924553047681	799.47053085749	0
16.076749947319	799.52510499725	0
15.661401300863	799.46023419218	0
15.749478359562	799.18693056799	0
0.1	799.9585	0
0.076575266933151	799.73621050019	0
0.33718786399264	799.74193233313	0
17.9	799.632	0
17.939441125638	799.42560700249	0
18	799.63	0
16.1	799.668	0
18.219803573296	799.47109355641	0
18.325	799.6235	0
18.1	799.628	0
14.191415310948	799.53629685031	0
14.325	799.695125	0
18.084622815311	799.48204398806	0
17.680727396373	799.4118376744	0
17.793035145598	799.1330778476	0
5.9176677547869	799.69835722845	0
5.8429891688973	799.4355587267	0
6.0731659186654	799.63361946562	0
52.683869779099	798.51081839931	0
53.00014999625	799.55	0
52.0000999975	799.55	0
22.757887572843	799.1389291944	0
22.55	799.549	0
22.340312046616	799.32188793143	0
-0.12289342255137	799.76993733986	0
0	799.96	0
-0.2	799.962	0
1.913462838837	799.78048029043	0
2.0635231929108	799.70641083595	0
2	799.93	0
38.216951001327	799.10495857317	0
44.185865496681	799.02356419026	0
44.084066875299	799.32875616366	0
43.947672375897	799.21854661938	0
35.921602478978	798.9774610117	0
36.080710926493	799.10753140185	0
35.940505883045	799.17017308776	0
27	799.925	0
27.260403216255	799.61852978104	0
27.45	799.95875	0
-6.6868535552199	796.61311994856	0
-5.6862014724822	796.79480877083	0
-6.0802240570374	797.40391634544	0
-4.7329504843939	799.3965117298	0
-4.2168053437717	799.09459573511	0
-4.2720899649783	799.61381523632	0
-3.4391809856611	799.55180440526	0
-3.8	799.998	0
-3.8980894252315	799.5683217856	0
43.955046234976	799.38328678536	0
44	799.51	0
43.9	799.494	0
43.675	799.458	0
43.844321328064	799.35166414455	0
1.9	799.9315	0
27.581232809504	799.74487962508	0
27.675	799.975625	0
36	799.3	0
11.559000006571	799.49602967547	0
11.675	799.7465	0
11.45	799.751	0
8.003149371724	799.52474785806	0
9.8329472749139	799.38934746018	0
6.3364197678666	799.62056955132	0
6.2484138301351	799.3259723524	0
6.55	799.839	0
6.1	799.848	0
8.1	799.8085	0
7.9	799.812	0
20.35477206141	799.27854955934	0
3.9	799.892	0
3.7751015096133	799.74210131147	0
3.9323416686908	799.73413305763	0
2.1	799.928	0
2.3394807516279	799.66245444481	0
7.45	799.821	0
7.5538224226588	799.56605079998	0
7.675	799.8165	0
16.325	799.6635	0
16.212551951219	799.51410789446	0
16.420823686757	799.41684688449	0
4	799.89	0
9.5632565847086	799.54342291525	0
9.675	799.784875	0
9.45	799.78825	0
21.827498722104	799.14216985867	0
21.772237861121	799.39864489609	0
5.675	799.8565	0
5.5559886916529	799.59298142364	0
5.7775093982985	799.69381385259	0
5.9	799.852	0
13	799.72	0
12.55	799.729	0
12.640911196276	799.28016432141	0
14.075586069323	799.358674976	0
21.9	799.5615	0
25.597421265228	799.55256860579	0
25.675	799.796375	0
25.45	799.75925	0
45.948966519124	799.32886295089	0
45.9	799.548	0
45.650808009985	799.29770944454	0
36.1	799.298	0
11.9	799.742	0
36.32455495327	799.07164845934	0
37.9	799.262	0
37.936547422278	799.05008528749	0
8.1928651274487	799.63664422211	0
39.675	799.2265	0
39.569022850481	799.00288788997	0
39.778228513106	799.0815593831	0
23.929196599461	799.37388986886	0
24	799.52	0
23.9	799.522	0
32	799.72	0
31.905954368273	799.54829172387	0
32.054498612144	799.58322388103	0
34.1	799.3285	0
34	799.33	0
34.063569429051	799.18004099012	0
35.9	799.3015	0
25.955369460589	799.70968430401	0
25.969950604574	799.52263930252	0
41.610653087343	798.97944628867	0
41.675	799.194875	0
41.45	799.19825	0
32.180946391507	799.55141626164	0
32.325	799.656625	0
32.1	799.7005	0
30	799.95	0
29.93142682328	799.76960345084	0
30.069375679522	799.81954121199	0
14.401937495599	799.35520055958	0
33.9	799.3495	0
33.90426597883	799.14121732201	0
24.1	799.5365	0
24.091757473833	799.32991002996	0
40.213494833547	799.05399913867	0
40.325	799.215125	0
40.1	799.2185	0
40.427773266606	798.97125615635	0
44.1	799.512	0
40.55	799.21175	0
46.2	799.55	0
46	799.55	0
44.321327281398	799.30135729527	0
44.55	799.521	0
38.325	799.2535	0
38.16026923825	798.87825774356	0
27.751205491095	799.62836322376	0
27.797345857243	799.81894417448	0
41.800762292235	799.05784649858	0
33.711957822759	798.8614529071	0
33.642582899496	799.16897053802	0
30.199162744173	799.80093486429	0
30.325	799.912625	0
30.1	799.9385	0
40.166244899459	798.81571971312	0
40.54543512033	798.58171758877	0
22.1	799.558	0
5.45	799.861	0
5	799.87	0
5.189112897934	799.54725424491	0
12.297161424299	799.50399675163	0
24.360961323629	799.35461149807	0
25.9	799.8335	0
28.324027003197	799.785203262	0
28.55	799.98625	0
4.3514988659076	799.56471372673	0
4.7677340390425	799.54164897616	0
4.55	799.879	0
27.94259953419	799.86671402617	0
27.9	799.9925	0
26.348226405996	799.65998320675	0
34.113297332767	798.91625937382	0
43	799.35	0
43.243409386258	799.10221902631	0
43.45	799.422	0
29.9	799.9525	0
1.8216432753109	799.52359664287	0
34.325	799.325125	0
34.204318496611	799.16148889043	0
45.691284416444	798.89699994922	0
46.242029660729	799.11437312175	0
41.9	799.1915	0
41.930432930656	799.06684855331	0
49.8	799.55	0
49.866833524243	799.13109849487	0
50	799.55	0
16.135059949746	799.28919335436	0
31.9	799.7315	0
20.069060220883	799.29067134096	0
25	799.685	0
25.275410299769	799.39796968894	0
23.785383318705	799.36371338938	0
4.0548510809273	799.76709600622	0
31.741703723152	799.30393064309	0
31.64996975227	799.55493107934	0
18.156780713564	799.23912937095	0
50.257468154589	799.17166617637	0
30.129098125905	799.62477746608	0
30.380742022741	799.70148444078	0
32.074227373124	799.3850536353	0
32.343071738642	799.42455206196	0
11	799.76	0
11.191490471471	799.41653372316	0
11.818956391237	799.34873443267	0
11.771755873459	799.58859246181	0
8.325	799.805125	0
8.4373357949196	799.56609744954	0
1.4204087071251	799.30930683192	0
1.7983973199761	798.98276172775	0
1	799.945	0
1.1901686383562	799.62783772713	0
1.45	799.93825	0
1.5571327543188	799.69039509371	0
1.675	799.934875	0
3.8014279612869	799.52782982485	0
3.45	799.901	0
3	799.91	0
3.249658158776	799.6279072214	0
35	799.315	0
35.239866551675	798.98249392252	0
35.45	799.30825	0
35.631871584746	799.00465989116	0
35.675	799.304875	0
43.080425538539	798.69117154391	0
43.468024075097	798.32500122616	0
43.557214941918	798.88784013448	0
43.933666670038	798.63399084312	0
9.7777531271749	799.6277782161	0
19.680090551265	799.38805266024	0
17.297869190045	799.21661241036	0
8.2435042877914	799.39110605152	0
8.01891879222	799.21925316545	0
19.797174571764	799.17119130289	0
3.5669241038401	799.65962105623	0
3.675	799.8965	0
29.686118526009	799.74829842282	0
38.777516388992	798.94347872303	0
39.470580290138	798.66632039703	0
24.55	799.61075	0
26.55	799.89125	0
31.45	799.78325	0
31	799.835	0
31.250327766993	799.40412605812	0
33.45	799.43725	0
33.243445921426	799.03279207331	0
41.88814704054	798.85628986442	0
10.55	799.769	0
0.55	799.95175	0
0.70247653817954	799.5852710601	0
2.55	799.919	0
36.993495494392	798.35371673423	0
37.658623694229	798.17219557413	0
37.322907058719	798.81290512975	0
21.178742912263	799.2503719118	0
15	799.685	0
15.26869872505	799.28532097541	0
15.45	799.67825	0
9	799.795	0
9.1983657540608	799.49051658141	0
23.859891155956	799.11705048344	0
43.740599429455	799.19344927473	0
21	799.575	0
17	799.65	0
17.45	799.641	0
5.4023618640491	799.15780578119	0
35.083750282202	798.57802069032	0
35.480845408143	798.25122595359	0
35.462694781787	798.68705266645	0
45.45	799.539	0
45	799.53	0
45.258928551974	799.17266580848	0
25.812531766441	799.64759015497	0
25.779434233861	799.44395719841	0
11.447633225486	799.09414516471	0
30.55	799.88675	0
30.700543788066	799.54079216938	0
33	799.525	0
32.55	799.61275	0
32.646168662672	799.16371453187	0
13.45	799.711	0
13.280083297204	799.25481231663	0
4.0263936145256	799.18787607881	0
4.0574867104943	799.58575450897	0
9.8447509578903	798.91029086551	0
9.8656038205507	798.34404251157	0
10.457405617026	798.71493595912	0
-0.11164806346514	799.49643197607	0
8.7788698500921	799.50688603156	0
8.5338646913043	799.25141869488	0
8.9516248801971	799.13016570768	0
2.7852362384261	799.39874430334	0
5.426013198278	798.53143850215	0
6.0578107870014	798.24221637449	0
5.9302212039111	798.92318721608	0
35.812243623357	799.15336884701	0
18.427556485955	799.37323764866	0
42.55	799.278	0
42.823203985292	799.02585516683	0
14.55	799.69175	0
20.55	799.58175	0
16.55	799.659	0
18.55	799.619	0
39.9	799.222	0
4.325	799.8835	0
38.422477233105	799.01454025152	0
7.8072971673802	799.63320240224	0
1.7744391263484	799.77566014118	0
4.1781087127192	799.73783999491	0
4.1	799.888	0
37.681863854556	799.02803632434	0
[...]
CELL_DATA 2685
SCALARS Coverage double 1
LOOKUP_TABLE default
1.1653465833717 0.60011998800239 0.07364836849113 0.50758699615033 1.000199980004 2.1004199580084 4.0508099190162 0.41597462820614 1.376992831229 0.40561082087328 0.93379202348032 4.500899910018 4.500899910018 0 0.31543156285026 0.80609010675827 0.12049208397683 0.2215805235484 2.2502531107633 0.17671490589788 0.33413009191853 2.3271327281318 1.2017609375009 2.2502531107633 0.50005624683629 0.90672040972308 0.35258063643883 0 0 2.2852164171547 1.374992742896 2.0254049595081 1.8002024886107 1.4067714075052 0.49068119921184 0 1.2410729408097 0 0.22794912785365 0.40001999950002 0.81353214527238 0.51830901538036 0 0 3.3100596686676 0 1.3537915506089 0 0 0 0 2.9622034028741 0.40004499746903 0.67689577530445 1.25223916941 1.5753149685063 0 0 0.5310901973168 0.90017998200361 0.92631295320304 0.25994051614914 0 0.16694758671025 1.213612137274 0 0.4500899910018 0 0.50266034018726 1.1251265553817 0.12291131013956 0 0 0 0 2.7005399460108 0.10305568786613 1.2850826168299 0.45608449052783 0 2.252439149414 0.78625860549467 0 1.000199980004 0.20852391905118 0.14900591055375 1.0001124936726 1.4910714098621 0.69420571233668 1.2258543836774 0.9963776187018 0 2.6252952958905 1.3754274108435 1.4474260767925 0.41654504880397 0.71713573300807 0.63960322393033 2.4752784218397 0 0.75845555007803 0.500099990002 2.4752784218396 0 0.59482404270113 2.250449955009 2.250449955009 0 0 1.3165348457218 0.27418761686616 2.4495712508261 0.16974286048348 0 0.67944877704277 0 0.29994177652141 1.3502699730054 3.5272240551756 0.86072838531 0.30263888071802 0.45014060303421 2.250449955009 1.0162003631058 0.20674442934834 0.18671945920542 0 0.30084256680199 0.353098363072 0 0.64413386433184 4.7192526545238 1.8682306074457 0.35052675891521 0 0.6751349865027 2.6005199480104 2.025227799687 0 0 0.19763339509366 0 0.32995483978189 0.36451654170633 0.27518599564996 0.49775341496408 0.1681930716174 0.91216898105567 0.70927423732928 0.95134123828478 0.29443269556981 0.95682761833251 0.50681070819464 0 0.61130107148606 0.61226885941966 0.1991498689506 0 0 3.1506299370126 0 0.67852260094009 0.39495309714606 1.8002024886107 0.90010124430533 0 1.8003599640072 4.050455599374 2.0252277996869 5.4154626148999 0 0 0.25381736237802 0 0.13078522764911 0.26899420539418 0.27772388843942 0 0.52664633796086 0.20393428335591 0.27317400911007 0.11196073505745 0.79854494124498 0 0 0.91216898105559 1.3537915506089 1.3588975540857 0 0 0.19880548676392 3.3637357249396 0 1.8003599640072 0.53685605335716 0 0 3.6004049772213 2.2502531107633 0.13301288885398 0 4.5005062215266 4.500899910018 0.50681070819464 0 0 7.4505047127149 0.2026614311579 0.17000003332182 0 0.31543156285026 0 1.3588975540857 2.750854821687 2.7005399460108 2.2946335083437 1.714791640464 1.3686822322919 0 0 0 0.11688501386049 0 0 3.1900652030954 1.8002024886107 1.1251265553817 2.2502531107634 2.2502531107633 2.250449955009 2.0254049595081 2.3746050173064 0.6751349865027 0 0.10305568786613 0 0.45608449052775 0.67689577530442 0.19025205692694 0 1.5753149685063 0.13020626677537 0.90010124430533 0.9001799820036 2.025227799687 0 0.47433866471642 0 0 0.12291131013956 0.17247624617872 0 0 0.46920836442144 0.063552884250882 0.55472570462196 0.27317400911007 0.6751349865027 0 0 1.1852670130858 0 0 0 0.17927683041639 0 0 0.41406000116601 0.70023356428129 0 0 0 0 0 0.4500899910018 0 0 0.9001799820036 0.70945738020341 0.11688501386049 0.14540744333503 0 0 0.7612065662407 4.0508099190162 2.1588650219431 0 0 2.2468797375926 0 0 0.48091904847583 2.4752784218397 0.16309958059221 0.70890337846561 0 2.0252277996869 4.0508099190162 2.1496760841682 0.60002999925004 0 2.925729314441 2.149975579664 10.800437858147 2.7005399460108 4.500899910018 4.0508099190162 0.044343066002758 0.17713468393656 0.327622733792 0.34680276887216 1.6825684672521 1.8002024886107 0 3.6004049772213 0 4.500899910018 1.5131989970543 1.3588975540856 2.7508548216873 1.5391733122372 0 0 0 0 0.13480468956932 0.45014060303421 3.2989167968016 10.511108557761 0.4865131402311 2.7005399460108 1.9141667962762 4.500899910018 0 2.7989896831545 1.062747038005 0.094008151055706 0.64322089467899 0 0 0 0.80989415783471 0.58148239641585 0.89829526158969 2.789853288346 0 0.36272129887912 0 0 0 0 0 0 0 0 2.1361625764325 0 0.7158077261195 0 0 0 0 0 0 0 0.327622733792 0 0.49276832997405 0 0 0.13480468956932 0.20915475090183 0 0.20915475090183 3.5012892892211 0 5.3844323164868 0 0.4865131402311 3.7457472885965 0 0.4102010026211 1.9141667962762 0 2.3254649535092 0 0.63157283470785 0 0 0 2.6717159749703 0 2.8794210539499 0 0.4501406030342 0 0.90004499887506 2.250449955009 0 0 0 0.31812543806404 0.46554045010238 0 0.38225069035011 0 1.1182976772566 4.0508099190162 0.65969993677141 0 0 0.41654504880397 0.1998958487624 3.6004049772213 0 0.6751349865027 0.13749176139388 0.27772388843942 0 0.35345893548551 0 0 4.5005062215266 0.11590246086621 0.15055875717106 4.500899910018 0 0 0.9001799820036 0 0.64322089467899 0.17713468393656 2.149975579664 0.67466936991077 0.56034814808834 0.7158077261195 0.67944877704286 0.70205171159922 0.33807597241614 0 0 1.3754274108438 0.13078522764911 0.80989415783471 0.34680276887216 1.1420791053228 0.25362067913239 0.9001799820036 0 1.8002024886107 0.16941090043258 0.13841966212306 0 1.3489544894794 0 0 0 2.3812732155218 0.75231342490544 0.38597773735332 0.21159768305861 0.39378544575488 0 6.5917260922948 0 0 0.96715254253162 1.8786010182997 1.3502699730054 0 0 0.70485839530615 0 2.2995244636172 0.8221449011478 2.9823368612766 0.43381755624711 0.15843452665891 0 0 0 0 0 0.44136533686734 0.1913639124526 1.05499151398 0 0 0.91516235407015 0 0 0 1.7966386999589 4.3264392301086 1.5250240269025 0.80987785769574 0.4501406030342 0 0.33065650420758 0.19215719002545 0.33065650420758 1.1216715659304 0.63035162050352 0.52659788711786 0 0 2.7508548216873 0 0 4.9505568436793 0 0 0 0.13143942651594 4.050455599374 0.13301288885398 0.31359942200745 0.23561660724203 0.73249962695786 0.82413356692288 0 0 0 2.4752784218397 1.3537915506089 0 0.52659788711786 0.99370197352526 1.5082976372258 0.21159768305861 0.48676073751459 2.2504499550089 0.1998958487624 0 2.2502531107633 1.3349568957718 0 0.35102674041511 0.23448613916543 0 1.4066831505625 0.21487979771976 0 0.36735418536841 0.91216898105558 0 3.1506299370126 0 1.8003599640072 0 0 0.20929419978408 0.29208594682798 0.29295819276281 0 0.33986356158146 0 0 0 0 4.0508099190162 0.24085980497188 1.5950326015476 0 0 0.081674727464679 0 0.60764614399896 3.5012892892211 3.2989167968016 0 0 0 0 0 5.4154626148999 4.500899910018 0 1.7861607956452 0 0.30199569186341 4.099214234255 0 0 0 0 0 1.2746112553114 0.14035385084646 0 0.33820716303514 0 0 0.91516235407015 0.67013881453988 6.7627560527337 0 0.41304863672901 0 0 0 0.63365836641967 1.1158546374019 0 0.40782017010644 0.094506377455956 0.57533690191388 6.7675890020215 0 0 0 0.47823414760532 0.42679923644851 0.17164337334703 1.6876547783227 0 21.250733529547 1.2567146422807 0.60764614399896 1.5950326015478 0 0.54912876810822 0 0.54411131896451 0 0 0 0 0.47168940601595 0.34657066126088 9.8802621410999 0 0.68579140540849 10.146188641516 2.0372316811623 0.2000371614194 0 0.85056241243943 0 0 2.3509356435895 0 2.4185303274452 0 0 0.88555947827643 5.4102007814567 0 0 0 0 0 0.24499600289334 0.74793919999725 2.9658116340787 0.64830010431555 0.25759457889369 1.3928294720491 0 4.0051698595924 3.4173906237871 0 0.11196073505745 3.3232696594434 0 0.79978965741309 0 0 0 0 1.0978662294681 0 0.867233476811 0 0.62866170671666 0.29253500248217 0 0.95044812695166 0 0 0 0 13.170543985972 0.65078368529497 0.87473125302366 0.50047940442764 0 11.389524515778 0 0.40223493961426 0 8.870892763031 2.4001199970002 0 0 0 0 0.33416212884407 0 0.20929419978408 0.23434111735165 0.38445193605056 0.43438033385975 0 0 0.42921099841865 0.58739238308628 2.1178424043879 3.4420455503909 0.14567734584206 0 0.45681083190559 3.9652442157825 0.61728864786001 0.45672133313073 0 1.7782135581607 0.54900879256749 0.24098555784262 0 1.3084569962548 0.63448429380803 0.61851394524314 2.2969492226078 1.3489544894794 1.1228790725515 0.25341816407618 0.25341816407618 0 0 0.18592228704559 2.708232951564 0.89119873550547 1.0890102975304 0 0 0 0.24838064556203 0 0 7.5807894309287 0 0 0 0 0 0 0 0 0 0 7.305916865037 3.3232696594434 0.33220521511506 0.31480419485775 0.29213038387384 0.28819792034725 0.90004499887506 1.8000899977501 0.42044643509735 0.41306001331084 0.75231342490544 0 0 0 1.3320191177322 0 0.3000599940012 0 0.15048575184256 0.39516218576484 0.23434111735165 0.54794196124899 2.370354206336 0 3.2331628168957 0 0 0.6722809655977 0.91700247538196 0 0.49049357089459 2.7850397649378 1.0712924667646 0.65078368529497 1.1787668985061 0.49423115257334 0.49423115257334 0 0.69402076712021 3.5025414256812 0 0.41228602268134 0 0 0.85828731996783 0 0 1.9484307663028 0.801848172365 0 0.70742712258278 0.35785477435152 1.1181438651995 1.1837080062811 4.6314919606634 0 0 9.643100910571 0.31812543806404 0.90992938881228 1.536351115921 0.4691228404815 0.29540205791672 0.437813382707 0 0.35462409857035 1.5198415987315 0 0.31338579927195 0 0.53756766915523 0 0.40223493961426 0 0.26486154578836 0 0 0 0 0 0 0 0.89098450787183 1.0675847725711 0 1.1464877930829 9.1690378017608 0 3.392629035998 1.6598285215078 0.7175954223597 0 0.54594650215967 0 0.41991426977857 1.5659195682811 2.6827497335137 3.1710530815246 2.1266788182911 5.0128661145959 0.3474865104646 0 0 0.24921181029897 0.59420577049534 0 0 0 0 5.0664073282512 0 6.6499504495383 0 0 0 0 0.93078295037301 1.7405483408127 0.16486349179487 0 2.7869043832784 0 0.38776445724802 0 0.65768964469524 0 0.24315696264382 0 2.9458024066479 0 3.0770775519931 0.90467986230623 3.5407919516339 1.8089153756411 1.1003327056763 0.99914287770857 2.1065874586484 0.59250728795165 3.2111302840798 0.33416212884407 0.43314315707899 0.41991426977857 0.72125965803368 4.1523125660067 0 1.7279001243619 0.74793919999725 0 0.62568260221192 3.313407461804 4.7487386632102 1.0529411484299 0 0 0 2.9658116340787 0 0.24921181029897 0.39513351038096 0.70566529152338 0 0 0.39328297942058 0.62910781177627 0.43314315707899 0 0 2.7569720063265 0 4.3047526877042 2.0995443340748 0 5.2634831277711 4.0760182626306 0 0.18251496082883 1.8048750448829 2.5128695348647 2.6173172691604 5.2312969378306 0.44722204988737 1.9374196417532 4.6831352134137 11.677994813304 1.6090807584836 2.1530370129533 7.2486450362748 2.9291204443195 2.6399876607323 0 0 0 4.7489099990277 0 1.2459271837927 8.4480347457628 0 0.41228602268134 20.147742742786 1.4776043713159 1.4251603034834 0 0 6.1656811662867 1.4552821921385 3.125742142052 1.3242878474777 0.55356610282502 0 0.64102541347544 0.8402936086532 3.1406964274685 1.6863793874785 2.2499635572669 3.0974677490983 4.5740739465055 5.0852359057025 0 1.1424365391964 0 4.1401670887779 2.4291207691953 1.379196214688 5.2600772967623 3.426432088589 0.84490311981222 8.0805276770572 1.2267395898336 9.3018811079033 0.82283369590335 0.49449189695264 1.5761059946448 0.7624727005947 0.69485079854845 0.98772027934035 0 0.083568546564917 2.2079764241928 2.1530370129533 0 1.1643706538031 37.138300425131 0 0 0 11.57399869995 0 5.4655593287579 0.96715254253162 7.1314301422279 0 0.32019569735194 0 0 2.2965239790241 2.4983505450794 0 6.0549037181096 6.0584709835068 0 0 0.4845797099309 0.54114891390109 0 1.9601345291896 0.44682662935018 0 0.39997558046347 0 0.31874769863299 0.43689872074625 1.3584334391236 1.1055589167316 0.78093400104326 0 0.39516218576484 0.17026649037906 7.1468884697567 0 0 0.31874769863299 0 0.60768719379764 0 6.4864638978785 0 2.3485760238843 2.9787975267756 0 0 0.60565656144197 1.3798652335764 0 0 1.967533487552 0 0 1.3204328339692 1.7190734499036 0.87117025800822 12.279821198614 0 0.3749463627031 0 2.2440963622384 4.0721755686604 4.8307589753679 0.58433437892042 5.8408076527508 1.9018925974987 0 0 7.6028129980888 6.8408532994906 0 0.53039074647684 1.565992231039 2.89165701724 0 0 3.513884254453 1.3648733075523 0 0 0 1.0328233901263 1.4124164783157 5.0946169538812 0 7.5046458150379 0 0 0.96884572490127 4.9461437238289 21.619401136687 2.3842857140295 0 10.440556513843 0 0 0.68637904225234 0.94807608417718 1.270718013516 0.53942796616562 0.31110017407627 1.0102492300532 0 4.5451879434261 0.71319235625948 12.341197531599 0 0 0 9.1531598707358 0 4.3722291018589 0 2.1373326225446 0 0 1.9580371000097 2.819927008627 2.699199163308 12.287637466993 1.3461078553779 0.59420577049534 0.62242698175671 0.36317163650875 0.81046297298182 1.6127768305917 0 0 0 0 10.756791248529 0 9.0690687053988 0.61381548591847 0.34152798254584 1.6118092666868 0 0 0 0 0 0 0 0 0.48589396638397 0 0 2.5007830980362 0 1.6382747848397 0 1.8905741340429 1.8203195330916 2.9670442466901 4.1150783265399 2.1970705552755 0 0 4.2356970950803 2.7085452459821 0 0 0 0 0.41071674261676 2.169531854332 0 1.4367766865171 0 0 0 0.7318539098395 0 0 0 0.2000371614194 13.224198891613 5.3982335591186 5.2480462503393 1.2311129409514 0 1.5819895113285 8.5757940692615 17.287512844515 0.48188013910867 1.3657682572955 0 3.720670235097 0.62341769941182 0.30199569186341 0 0 14.911500522723 0.21678570022539 0.81474281317103 0 5.8650166453672 0 5.3844323164868 0 2.3016294207436 1.9034906478852 0 12.487612730929 0 0 1.142584166301 4.500899910018 0 0.40844794698496 0 0 0 0 1.8274924789239 1.384776829253 0.40533002799718 0 2.5207441158207 4.8502450984542 0.44126038027852 1.5838445465795 0 0 0 0.41327871995738 1.8827582596392 4.5666479145268 0 13.48157611895 0 2.9109168925216 1.6369884896661 8.5828889192514 0.53641529097247 1.8374874559926 1.6889524821469 2.224284615636 0 2.5971581715093 0 0 0.39594089369555 0.74690537246022 0 0 0 0 1.8084301962121 1.9279018193709 1.8662708141558 4.8845165305845 4.8081204852073 12.82439517856 0 2.241730029427 4.764135265729 4.8756879908229 0 1.1001237430399 0 2.1487159160851 1.4576818991521 3.4808379073905 0 1.379196214688 0 4.4794523249065 0 0.87394334611276 0.27694681954521 4.6917180829771 1.0510160559924 2.7432915304586 4.782007044942 29.422022937375 4.7534807411454 4.5071035279332 0 0 0 2.7001353062756 0.94876177358392 0 0.33328632385951 0 0 3.0117684507257 0 0.5054683382604 0.19469881838049 18.763258946946 3.9877658712767 0 1.2127363755198 0 0 0 0 9.105733905809 0 0 1.573458709434 2.5183849589051 9.4485135995428 0 0 0 0 1.3045180950014 1.3216581263788 0 2.6205777602736 0 0 4.9768886703186 4.5793276439646 0 0 26.678174750515 3.3012547543642 3.0625865416767 0.37398935121584 7.9881258701609 2.0790677360011 2.1087331016772 1.883117252829 3.5238973079282 6.0164574091646 0 0 0 0 0 0 0 0 0 0 0 0 3.6458539821954 2.6445847698253 2.4269640386627 5.9036154914423 0.76892786091238 2.679674895206 1.5510984052847 0.37926409693782 2.8537375161639 2.905612737933 1.2041764730995 3.7311717708437 3.6033634427842 1.997507016203 5.4330175649714 11.485068815667 1.2708689920467 3.0264552188227 1.2614860555539 1.1233050029862 1.7998736276889 3.0620121381256 3.6050364293419 0.73912428253194 0.49374482622745 0.59626003385996 2.7274527593354 0 1.7738490695003 1.4017363591452 1.3457768625349 2.9522335733939 5.120581108336 3.3836081937633 20.771282033744 21.585372817503 1.1930038102419 3.2419855736184 20.425462324516 0 0.94504995661111 0 0 0 0.6895519267955 1.3046184763648 1.8108054510273 3.7602652400077 7.587887667145 3.3194803316183 5.6584474647214 6.7825145593443 3.128039844249 1.0758278213795 0 0 17.099147392843 21.56776261379 0 0 2.0119760154185 4.9791891182765 2.5137672826123 2.5137672826123 7.7698600537408 0 0 1.8639969363202 0 0 0 0 0 0 0 0 0 0 0 0 0 0 0 0 0 0 0 0 0 0 0 0 0 0 0 20.458790299437 3.7179219166111 3.4911775278229 3.4836756631693 0.48326308689225 3.8246259717813 18.075620238019 0 0 0 0 0 0 0 0 7.4374208781374 0.77298299893934 6.8064087226392 0 0 0 0 1.4592763649193 0 2.4971073274779 1.8639969363202 0 0 0 0 0 0 0 0 0 13.915079262264 12.026323134857 0.57382173841726 6.3490023795334 1.8415622934547 6.0753279134819 3.1715470032505 0 0 0 0 20.376634263468 20.750899282016 2.0630188640973 0.48326308689225 19.748511171253 12.638623241931 13.749494881036 6.7234023631016 4.6473603489909 7.5876725924391 0.79932217626491 2.3057313966946 0.5249032477207 0.87563539491825 1.0883080648355 1.8907550291608 2.4650273664078 1.1477902092144 0 0 0.65228527935458 0 16.418690641803 12.325136832038 0 0.57403550115669 0.41461518783457 0 0 9.5192809939669 0 0 12.261898321544 0 0 0 0 0 0 0 0 0 0 7.759858310305 7.3718632442068 18.530199080818 0 3.234210408092 0 0 12.944713273966 0 0 0 0 16.064762861733 1.276547589711 0.83132449506521 0 0 0 0 0 0 0 0 23.621702436746 12.989555697609 0 0 0 16.461423673133 0 0 7.4031971799019 8.4538431971426 0 0 0 0 0 0 0 0 0 0 0 0 0 0 0 14.616574072553 0 13.553022568588 0 0 0 15.314476110971 0 0 0 0 0 0 0 0 0 0 0 0 2.2307379627191 18.339557811904 0 0 0 0 0 0 0 0 0 0 0 0 0 0 0 0 0 0.68230117153052 26.313670293616 0 23.917435683029 0.64869932829485 0 0 0 0 0 0 0 0 0 0 17.98395143194 0 0 0 0 0 0 0 0 0 0.3386230345084 5.4579173062775 0 4.5982330620534 2.7859638910473 0 0 32.380309913151 20.763094048324 0 0 0 0 0 0 0 0 0 0 0 0 0 0 0 0 0 0 0 0 0 0 0 0 0 0 0 0 0 0 0 0.85086635362949 0.37438564531982 0 0.51946404186408 0 0.98736834811277 0 0.64194568722845 1.7452232251158 0 0 0.3661083433462 4.2489601086472 0 1.3758300707646 0.85446580449917 0 2.715984189545 4.4954060174681 1.1890581316865 2.8616984791736 2.7895559517301 5.2824874758411 0 0 2.8352460403119 0 23.663097822935 16.344077776994 0 11.302212496771 0 0 1.0618951490409 0 0 0 0 0 0 0 0 0 0 0 0 0 0 9.1028316585866 0 0 0 0 0 0 0 0 0 0 0 0 0 0 0 0 0 0 0 0 0 0 0 0 0 0 0 0 0 0 0 0 0 0 0 0 0 0 0 0 0 0 0 0 0 0 0 0 0 0 0 0 0 0 0 0 0 0 0 0 0 0 0 0 0 0 0 0 0 0 0 0 0 0 0 0 0 0 0 0 0.82835115427862 0 0 21.116786374485 0 0 3.6800469435037 1.2082780097284 1.9995274124247 1.0853891921893 3.5185729783565 3.492056244752 1.4657428310432 3.9474822593814 3.0922834868103 0.52690580928488 3.0578301727155 2.6345290464246 3.9818969275152 0.60519121984005 2.7891704556859 3.929511346588 42.789584650302 0.83395979443 2.9129871587047 2.8657792080322 1.1098568211216 3.0922834868103 0 0.87117025800822 1.8720757993674 0.49486144261035 3.9473383988122 14.460573605891 20.893876924004 9.7587099091614 4.996712910026 3.8310024468399 9.0271493540105 2.8199198292269 4.004331008728 23.724319219145 6.8439491788534 30.765119627455 0 25.389183725751 0 0 22.360113901127 0 0 35.056319649446 3.8358248891328 2.3489883554062 3.3205949398446 4.5481046774104 0 8.9762925745486 7.0675537367675 1.0480485246434 2.5715329532341 0.66013892011691 2.5715329532341 1.8144919562377 1.7393592767246 2.5593260008056 3.6306651157112 3.9140112865613 0 4.9715935459339 2.6969871585419 0 10.98184099724 0 12.534915973328 2.4688271374774 9.346491586401 21.156531694731 0 6.9400890432718 2.4688271374774 0 0 0.60972218255035 1.540475264421 4.1697271593661 0 0 0.60972218255035 0 0 0 14.678164884439 0 0 0 21.156531694731 0 0 4.1684116014786 3.4958036550086 0.57665894783442 0 1.2779052179431 2.5977024374155 0 0 0 0 22.673776921711 0 0 0 0 0 0 0 0 0 0 0 0 0 0 0 0 0 0 0 0 0 0 0 0 0 0 0 0 0 0 0 0 0 0 0 0 0 0 0 0 0 0 0 0 0 0 0 0 0 0 0 0 0 0 0 0 0 0 0 0 0 0 0 0 0 0 0 0 0 0 0 0 0 0 0 0 0 0 0 0 0 0 0 0 0 0 0 0 0 0 0 0 0 0 0 0 0 0 0 0 0 0 0 0 0 0 0 0 0 0 0 0 0 0 0 0 0 0 0 0 0 0 0 0 0 0 0 0 0 0 0 0 0 0 0 0 0 0 0 0 0 0 0 0 0 0 0 0 0 0 0 0 0 0 0 0 0 0 0 0 0 0 0 0 0 0 0 0 0 0 0 0 0 0 0 0 0 0 0 0 0 0 0 0 0 0 0 0 0 0 0 0 0 0 0 0 0 0 0 0 0 0 0 0 0 0 0 0 0 0 0 0 0 0 0 0 0 0 0 0 0 0 0 0 0 0 0 0 0 0 0 0 0 0 0 0 0 0 0 0 0 0 0 0 0 0 0 0 0 0 0 0 0 0 0 0 0 0 0 0 0 0 0 0 0 0 0 0 0 0 0 0 0 0 0 0 0 0 0 0 0 0 0 0 0 0 0 0 0 0 0 0 0 0 0 0 0 0 0 0 0 0 0 0 0 0 0 0 0 0 0 0 0 0 0 0.63210682822973 2.0204859333054 0.97421393182453 2.284312405926 0.87688316559456 2.8187218172693 0.36542929779424 2.4100229942218 0.91492711092274 4.1688383081631 1.1076267589501 0.32060199066253 20.750899282016 4.4896920216964 1.9252758940158 3.0989690804279 0.9607817229361 9.4582921636371 0 0 0 0 0 0 0 0 4.0579774686807 4.7229243852931 0 0 0 0 0 0 0 0 0 0 0 0 0 0 0 0 0 0 0 0 0 0 0